                         Program Version 5.0  -   STABLE   -
|  1> !DLPNO-CCSD(T) def2-TZVP def2/J TIGHTSCF def2-TZVP/C RIJCOSX TIGHTPNO LED
|  2> %pal nprocs 8 end
|  3> %maxcore 3000
|  4>
|  5> *xyzfile 0 1 neb_NEB-TS_converged.xyz
|  6>
|  7>                          ****END OF INPUT****

CARTESIAN COORDINATES (ANGSTROEM)
---------------------------------
  H      0.479438    0.678878    2.416206
  C      0.275320    0.814821    1.344653
  H     -1.936276    1.093042    1.357554
  C     -0.985523    1.138767    0.809487
  H      1.560338    2.312896    0.534099
  C      1.310779    1.242271    0.334756
  H      2.263497    0.680992    0.338216
  C     -0.848395    1.365208   -0.577358
  C      0.500841    1.186378   -0.936533
  H     -1.675344    1.525065   -1.282343
  H      0.909919    1.389365   -1.936456
  C     -0.692974   -1.399637   -1.472135
  C     -0.925332   -1.767132    0.784138
  C      0.463548   -1.299945    0.546978
  C      0.604568   -1.073813   -0.828509
  O     -1.470229   -2.145322    1.790441
  O     -1.607710   -1.690420   -0.443690
  O     -1.014010   -1.426025   -2.633444
  H      1.531666   -1.091034   -1.414287
  H      1.255880   -1.534356    1.268227

 Total Charge           Charge          ....    0
 Multiplicity           Mult            ....    1
 Number of Electrons    NEL             ....   86
 Basis Dimension        Dim             ....  420

ORBITAL ENERGIES
----------------

  NO   OCC          E(Eh)            E(eV)
   0   2.0000     -20.623652      -561.1981
   1   2.0000     -20.558077      -559.4137
   2   2.0000     -20.557988      -559.4113
   3   2.0000     -11.399987      -310.2094
   4   2.0000     -11.399917      -310.2075
   5   2.0000     -11.288558      -307.1773
   6   2.0000     -11.288443      -307.1742
   7   2.0000     -11.285612      -307.0971
   8   2.0000     -11.284394      -307.0640
   9   2.0000     -11.272251      -306.7335
  10   2.0000     -11.265675      -306.5546
  11   2.0000     -11.264555      -306.5241
  12   2.0000      -1.481908       -40.3248
  13   2.0000      -1.407896       -38.3108
  14   2.0000      -1.362203       -37.0674
  15   2.0000      -1.196327       -32.5537
  16   2.0000      -1.105599       -30.0849
  17   2.0000      -0.996831       -27.1251
  18   2.0000      -0.995226       -27.0815
  19   2.0000      -0.931425       -25.3454
  20   2.0000      -0.830908       -22.6102
  21   2.0000      -0.795432       -21.6448
  22   2.0000      -0.792522       -21.5656
  23   2.0000      -0.755972       -20.5710
  24   2.0000      -0.729384       -19.8476
  25   2.0000      -0.699758       -19.0414
  26   2.0000      -0.679728       -18.4963
  27   2.0000      -0.660900       -17.9840
  28   2.0000      -0.633625       -17.2418
  29   2.0000      -0.624251       -16.9867
  30   2.0000      -0.614038       -16.7088
  31   2.0000      -0.582960       -15.8631
  32   2.0000      -0.577697       -15.7199
  33   2.0000      -0.562451       -15.3051
  34   2.0000      -0.558700       -15.2030
  35   2.0000      -0.555019       -15.1028
  36   2.0000      -0.535640       -14.5755
  37   2.0000      -0.487919       -13.2769
  38   2.0000      -0.477443       -12.9919
  39   2.0000      -0.462168       -12.5762
  40   2.0000      -0.450772       -12.2661
  41   2.0000      -0.364682        -9.9235
  42   2.0000      -0.341636        -9.2964
  43   0.0000       0.057740         1.5712
  44   0.0000       0.075579         2.0566
  45   0.0000       0.118355         3.2206
  46   0.0000       0.138427         3.7668
  47   0.0000       0.155600         4.2341

MULLIKEN ATOMIC CHARGES
-----------------------
   0 H :    0.168727
   1 C :   -0.087888
   2 H :    0.165779
   3 C :   -0.191908
   4 H :    0.140808
   5 C :   -0.160896
   6 H :    0.125468
   7 C :   -0.189086
   8 C :   -0.088537
   9 H :    0.165029
  10 H :    0.168609
  11 C :    0.444853
  12 C :    0.443813
  13 C :   -0.140514
  14 C :   -0.142491
  15 O :   -0.429830
  16 O :   -0.314054
  17 O :   -0.429556
  18 H :    0.176290
  19 H :    0.175385
Sum of atomic charges:   -0.0000000

LOEWDIN ATOMIC CHARGES
----------------------
   0 H :    0.142437
   1 C :   -0.093237
   2 H :    0.147086
   3 C :   -0.121876
   4 H :    0.164646
   5 C :   -0.218020
   6 H :    0.138139
   7 C :   -0.121829
   8 C :   -0.093670
   9 H :    0.146989
  10 H :    0.142506
  11 C :   -0.337716
  12 C :   -0.337740
  13 C :   -0.118234
  14 C :   -0.118254
  15 O :    0.067948
  16 O :    0.235737
  17 O :    0.068102
  18 H :    0.153495
  19 H :    0.153491

  Mayer bond orders larger than 0.100000
B(  0-H ,  1-C ) :   0.9571 B(  1-C ,  3-C ) :   1.5284 B(  1-C ,  5-C ) :   1.0005
B(  1-C , 13-C ) :   0.3255 B(  2-H ,  3-C ) :   0.9443 B(  3-C ,  7-C ) :   1.4019
B(  4-H ,  5-C ) :   0.9229 B(  5-C ,  6-H ) :   0.9823 B(  5-C ,  8-C ) :   0.9998
B(  7-C ,  8-C ) :   1.5273 B(  7-C ,  9-H ) :   0.9451 B(  8-C , 10-H ) :   0.9573
B(  8-C , 14-C ) :   0.3262 B( 11-C , 14-C ) :   1.0181 B( 11-C , 16-O ) :   1.0269
B( 11-C , 17-O ) :   2.0547 B( 12-C , 13-C ) :   1.0181 B( 12-C , 15-O ) :   2.0544
B( 12-C , 16-O ) :   1.0275 B( 13-C , 14-C ) :   1.5116 B( 13-C , 19-H ) :   0.9341
B( 14-C , 18-H ) :   0.9334

E(0)                                       ...   -570.177459574
E(0)                                       ...   -570.177459574
E(CORR)(strong-pairs)                      ...     -2.144076660
E(CORR)(weak-pairs)                        ...     -0.002941374
E(CORR)(corrected)                         ...     -2.147018034
E(TOT)                                     ...   -572.324477607
E(CCSD(T))                                 ...   -572.432233941
FINAL SINGLE POINT ENERGY      -572.432233940619

DIPOLE MOMENT
-------------
                                X             Y             Z
Electronic contribution:     -5.03694      -6.55604      -1.59407
Nuclear contribution   :      7.02879       8.18750       2.06731
                        -----------------------------------------
Total Dipole Moment    :      1.99185       1.63146       0.47324
                        -----------------------------------------
Magnitude (a.u.)       :      2.61784
Magnitude (Debye)      :      6.65401

Rotational constants in cm-1:     0.045631     0.036194     0.026701
Rotational constants in MHz :  1367.980628  1085.060061   800.470166

                             ****ORCA TERMINATED NORMALLY****
TOTAL RUN TIME: 0 days 0 hours 56 minutes 57 seconds 344 msec
