                         Program Version 5.0  -   STABLE   -
|  1> !DLPNO-CCSD(T) def2-TZVP def2/J TIGHTSCF def2-TZVP/C RIJCOSX TIGHTPNO NOAUTOSTART
|  2> %pal nprocs 8 end
|  3>
|  4> *xyzfile 0 1 frag2.xyz
|  5>
|  6>                          ****END OF INPUT****

CARTESIAN COORDINATES (ANGSTROEM)
---------------------------------
  C     -0.692974   -1.399637   -1.472135
  C     -0.925332   -1.767132    0.784138
  C      0.463548   -1.299945    0.546978
  C      0.604568   -1.073813   -0.828509
  O     -1.470229   -2.145322    1.790441
  O     -1.607710   -1.690420   -0.443690
  O     -1.014010   -1.426025   -2.633444
  H      1.531666   -1.091034   -1.414287
  H      1.255880   -1.534356    1.268227

 Total Charge           Charge          ....    0
 Multiplicity           Mult            ....    1
 Number of Electrons    NEL             ....   50
 Basis Dimension        Dim             ....  229

ORBITAL ENERGIES
----------------

  NO   OCC          E(Eh)            E(eV)
   0   2.0000     -20.645550      -561.7940
   1   2.0000     -20.593201      -560.3695
   2   2.0000     -20.593177      -560.3688
   3   2.0000     -11.428932      -310.9971
   4   2.0000     -11.428868      -310.9953
   5   2.0000     -11.330397      -308.3158
   6   2.0000     -11.329139      -308.2815
   7   2.0000      -1.507131       -41.0111
   8   2.0000      -1.437439       -39.1147
   9   2.0000      -1.389926       -37.8218
  10   2.0000      -1.141917       -31.0731
  11   2.0000      -0.966699       -26.3052
  12   2.0000      -0.856527       -23.3073
  13   2.0000      -0.820783       -22.3346
  14   2.0000      -0.732165       -19.9232
  15   2.0000      -0.692886       -18.8544
  16   2.0000      -0.690424       -18.7874
  17   2.0000      -0.664316       -18.0769
  18   2.0000      -0.645550       -17.5663
  19   2.0000      -0.609811       -16.5938
  20   2.0000      -0.576693       -15.6926
  21   2.0000      -0.509450       -13.8628
  22   2.0000      -0.505283       -13.7495
  23   2.0000      -0.480816       -13.0837
  24   2.0000      -0.437827       -11.9139
  25   0.0000      -0.000453        -0.0123
  26   0.0000       0.137584         3.7439
  27   0.0000       0.160291         4.3617
  28   0.0000       0.166864         4.5406
  29   0.0000       0.190172         5.1748

MULLIKEN ATOMIC CHARGES
-----------------------
   0 C :    0.493943
   1 C :    0.492430
   2 C :   -0.139133
   3 C :   -0.141575
   4 O :   -0.385672
   5 O :   -0.305202
   6 O :   -0.385827
   7 H :    0.185634
   8 H :    0.185402
Sum of atomic charges:   -0.0000000

LOEWDIN ATOMIC CHARGES
----------------------
   0 C :   -0.323467
   1 C :   -0.323466
   2 C :   -0.051745
   3 C :   -0.051904
   4 O :    0.102395
   5 O :    0.231012
   6 O :    0.102485
   7 H :    0.157326
   8 H :    0.157363

  Mayer bond orders larger than 0.100000
B(  0-C ,  3-C ) :   1.0343 B(  0-C ,  5-O ) :   1.0292 B(  0-C ,  6-O ) :   2.0497
B(  1-C ,  2-C ) :   1.0348 B(  1-C ,  4-O ) :   2.0497 B(  1-C ,  5-O ) :   1.0293
B(  2-C ,  3-C ) :   1.8564 B(  2-C ,  8-H ) :   0.9420 B(  3-C ,  7-H ) :   0.9423

E(0)                                       ...   -377.355130762
E(0)                                       ...   -377.355130762
E(CORR)(strong-pairs)                      ...     -1.293188235
E(CORR)(weak-pairs)                        ...     -0.001182266
E(CORR)(corrected)                         ...     -1.294370501
E(TOT)                                     ...   -378.649501263
E(CCSD(T))                                 ...   -378.710976074
FINAL SINGLE POINT ENERGY      -378.710976073675

DIPOLE MOMENT
-------------
                                X             Y             Z
Electronic contribution:     -2.01206      -0.08627      -0.22121
Nuclear contribution   :      3.91145       0.46341       0.47815
                        -----------------------------------------
Total Dipole Moment    :      1.89939       0.37715       0.25694
                        -----------------------------------------
Magnitude (a.u.)       :      1.95345
Magnitude (Debye)      :      4.96526

Rotational constants in cm-1:     0.224341     0.080183     0.059328
Rotational constants in MHz :  6725.566835  2403.827800  1778.596662

                             ****ORCA TERMINATED NORMALLY****
TOTAL RUN TIME: 0 days 0 hours 6 minutes 7 seconds 924 msec
