                         Program Version 5.0  -   STABLE   -
|  1> !DLPNO-CCSD(T) def2-TZVP def2/J TIGHTSCF def2-TZVP/C RIJCOSX TIGHTPNO
|  2> %pal nprocs 8 end
|  3>
|  4> *xyzfile 0 1 frag1_opt.xyz
|  5>
|  6>                          ****END OF INPUT****

CARTESIAN COORDINATES (ANGSTROEM)
---------------------------------
  H      0.477130    0.887339    2.465303
  C      0.248090    1.039904    1.402024
  H     -1.946082    0.911156    1.341537
  C     -0.986376    1.052913    0.824134
  H      1.902844    2.175841    0.545739
  C      1.283512    1.272242    0.337036
  H      2.012699    0.430999    0.272124
  C     -0.843727    1.288290   -0.618065
  C      0.478169    1.419443   -0.923900
  H     -1.682171    1.346848   -1.326879
  H      0.910505    1.602708   -1.916770

 Total Charge           Charge          ....    0
 Multiplicity           Mult            ....    1
 Number of Electrons    NEL             ....   36
 Basis Dimension        Dim             ....  191

ORBITAL ENERGIES
----------------

  NO   OCC          E(Eh)            E(eV)
   0   2.0000     -11.234643      -305.7102
   1   2.0000     -11.231729      -305.6309
   2   2.0000     -11.231138      -305.6148
   3   2.0000     -11.229691      -305.5754
   4   2.0000     -11.229552      -305.5716
   5   2.0000      -1.144624       -31.1468
   6   2.0000      -0.956869       -26.0377
   7   2.0000      -0.950968       -25.8772
   8   2.0000      -0.749973       -20.4078
   9   2.0000      -0.722621       -19.6635
  10   2.0000      -0.688496       -18.7349
  11   2.0000      -0.585571       -15.9342
  12   2.0000      -0.554964       -15.1013
  13   2.0000      -0.524565       -14.2741
  14   2.0000      -0.507372       -13.8063
  15   2.0000      -0.502349       -13.6696
  16   2.0000      -0.409398       -11.1403
  17   2.0000      -0.304095        -8.2748
  18   0.0000       0.113373         3.0850
  19   0.0000       0.151675         4.1273
  20   0.0000       0.180560         4.9133
  21   0.0000       0.188307         5.1241
  22   0.0000       0.202456         5.5091

MULLIKEN ATOMIC CHARGES
-----------------------
   0 H :    0.134469
   1 C :   -0.235053
   2 H :    0.133132
   3 C :   -0.135358
   4 H :    0.106941
   5 C :   -0.011205
   6 H :    0.106492
   7 C :   -0.132163
   8 C :   -0.234105
   9 H :    0.132250
  10 H :    0.134599
Sum of atomic charges:   -0.0000000

LOEWDIN ATOMIC CHARGES
----------------------
   0 H :    0.130625
   1 C :   -0.148263
   2 H :    0.132437
   3 C :   -0.151491
   4 H :    0.147102
   5 C :   -0.220825
   6 H :    0.147066
   7 C :   -0.151412
   8 C :   -0.148250
   9 H :    0.132374
  10 H :    0.130636

  Mayer bond orders larger than 0.100000
B(  0-H ,  1-C ) :   0.9672 B(  1-C ,  3-C ) :   1.9255 B(  1-C ,  5-C ) :   1.0153
B(  2-H ,  3-C ) :   0.9642 B(  3-C ,  7-C ) :   1.0487 B(  4-H ,  5-C ) :   0.9463
B(  5-C ,  6-H ) :   0.9462 B(  5-C ,  8-C ) :   1.0137 B(  7-C ,  8-C ) :   1.9261
B(  7-C ,  9-H ) :   0.9646 B(  8-C , 10-H ) :   0.9673

E(0)                                       ...   -192.856941402
E(0)                                       ...   -192.856941402
E(CORR)(strong-pairs)                      ...     -0.823867752
E(CORR)(weak-pairs)                        ...     -0.000574172
E(CORR)(corrected)                         ...     -0.824441923
E(TOT)                                     ...   -193.681383325
E(CCSD(T))                                 ...   -193.720663731
FINAL SINGLE POINT ENERGY      -193.720663731089

DIPOLE MOMENT
-------------
                                X             Y             Z
Electronic contribution:     -1.09333      -0.05067      -0.11654
Nuclear contribution   :      1.24384       0.05757       0.13261
                        -----------------------------------------
Total Dipole Moment    :      0.15051       0.00690       0.01607
                        -----------------------------------------
Magnitude (a.u.)       :      0.15153
Magnitude (Debye)      :      0.38515

Rotational constants in cm-1:     0.278460     0.272132     0.141270
Rotational constants in MHz :  8348.019478  8158.301521  4235.175839

                             ****ORCA TERMINATED NORMALLY****
TOTAL RUN TIME: 0 days 0 hours 3 minutes 51 seconds 441 msec
