                         Program Version 5.0  -   STABLE   -
|  1> !DLPNO-CCSD(T) def2-TZVP def2/J TIGHTSCF def2-TZVP/C RIJCOSX TIGHTPNO
|  2> %pal nprocs 8 end
|  3>
|  4> *xyzfile 0 1 frag2_opt.xyz
|  5>
|  6>                          ****END OF INPUT****

CARTESIAN COORDINATES (ANGSTROEM)
---------------------------------
  C     -0.704966   -1.422872   -1.465174
  C     -0.935163   -1.786180    0.768082
  C      0.497923   -1.458289    0.497264
  C      0.634102   -1.241837   -0.825729
  O     -1.482864   -2.046500    1.806783
  O     -1.614213   -1.750052   -0.454114
  O     -1.027075   -1.323748   -2.619760
  H      1.527815   -0.978044   -1.405145
  H      1.249848   -1.420161    1.295513

 Total Charge           Charge          ....    0
 Multiplicity           Mult            ....    1
 Number of Electrons    NEL             ....   50
 Basis Dimension        Dim             ....  229

ORBITAL ENERGIES
----------------

  NO   OCC          E(Eh)            E(eV)
   0   2.0000     -20.650278      -561.9226
   1   2.0000     -20.591588      -560.3256
   2   2.0000     -20.591551      -560.3246
   3   2.0000     -11.427807      -310.9664
   4   2.0000     -11.427788      -310.9659
   5   2.0000     -11.320073      -308.0348
   6   2.0000     -11.318454      -307.9908
   7   2.0000      -1.513009       -41.1711
   8   2.0000      -1.438194       -39.1352
   9   2.0000      -1.393370       -37.9155
  10   2.0000      -1.150872       -31.3168
  11   2.0000      -0.958487       -26.0818
  12   2.0000      -0.858555       -23.3625
  13   2.0000      -0.827647       -22.5214
  14   2.0000      -0.733282       -19.9536
  15   2.0000      -0.696227       -18.9453
  16   2.0000      -0.690777       -18.7970
  17   2.0000      -0.668885       -18.2013
  18   2.0000      -0.640250       -17.4221
  19   2.0000      -0.617962       -16.8156
  20   2.0000      -0.577457       -15.7134
  21   2.0000      -0.508889       -13.8476
  22   2.0000      -0.507852       -13.8193
  23   2.0000      -0.479161       -13.0386
  24   2.0000      -0.446854       -12.1595
  25   0.0000       0.016171         0.4400
  26   0.0000       0.139834         3.8051
  27   0.0000       0.159598         4.3429
  28   0.0000       0.176571         4.8047
  29   0.0000       0.180550         4.9130

MULLIKEN ATOMIC CHARGES
-----------------------
   0 C :    0.496869
   1 C :    0.496373
   2 C :   -0.147725
   3 C :   -0.146951
   4 O :   -0.385887
   5 O :   -0.301331
   6 O :   -0.386314
   7 H :    0.187976
   8 H :    0.186990
Sum of atomic charges:   -0.0000000

LOEWDIN ATOMIC CHARGES
----------------------
   0 C :   -0.319048
   1 C :   -0.319047
   2 C :   -0.062990
   3 C :   -0.062924
   4 O :    0.103054
   5 O :    0.244283
   6 O :    0.103006
   7 H :    0.156847
   8 H :    0.156819

  Mayer bond orders larger than 0.100000
B(  0-C ,  3-C ) :   1.0313 B(  0-C ,  5-O ) :   1.0377 B(  0-C ,  6-O ) :   2.0547
B(  1-C ,  2-C ) :   1.0305 B(  1-C ,  4-O ) :   2.0552 B(  1-C ,  5-O ) :   1.0376
B(  2-C ,  3-C ) :   1.8841 B(  2-C ,  8-H ) :   0.9374 B(  3-C ,  7-H ) :   0.9360

E(0)                                       ...   -377.374544316
E(0)                                       ...   -377.374544316
E(CORR)(strong-pairs)                      ...     -1.287972903
E(CORR)(weak-pairs)                        ...     -0.001183936
E(CORR)(corrected)                         ...     -1.289156838
E(TOT)                                     ...   -378.663701154
E(CCSD(T))                                 ...   -378.723756720
FINAL SINGLE POINT ENERGY      -378.723756719734

DIPOLE MOMENT
-------------
                                X             Y             Z
Electronic contribution:     -2.03201      -0.37227      -0.27010
Nuclear contribution   :      3.90209       0.71656       0.51894
                        -----------------------------------------
Total Dipole Moment    :      1.87008       0.34429       0.24884
                        -----------------------------------------
Magnitude (a.u.)       :      1.91772
Magnitude (Debye)      :      4.87446

Rotational constants in cm-1:     0.226239     0.080904     0.059593
Rotational constants in MHz :  6782.472475  2425.445875  1786.562635

                             ****ORCA TERMINATED NORMALLY****
TOTAL RUN TIME: 0 days 0 hours 6 minutes 7 seconds 755 msec
