                         Program Version 5.0  -   STABLE   -
|  1> !DLPNO-CCSD(T) def2-TZVP def2/J TIGHTSCF def2-TZVP/C RIJCOSX TIGHTPNO
|  2> %pal nprocs 8 end
|  3>
|  4> *xyzfile 0 1 frag1.xyz
|  5>
|  6>                          ****END OF INPUT****

CARTESIAN COORDINATES (ANGSTROEM)
---------------------------------
  H      0.479438    0.678878    2.416206
  C      0.275320    0.814821    1.344653
  H     -1.936276    1.093042    1.357554
  C     -0.985523    1.138767    0.809487
  H      1.560338    2.312896    0.534099
  C      1.310779    1.242271    0.334756
  H      2.263497    0.680992    0.338216
  C     -0.848395    1.365208   -0.577358
  C      0.500841    1.186378   -0.936533
  H     -1.675344    1.525065   -1.282343
  H      0.909919    1.389365   -1.936456

 Total Charge           Charge          ....    0
 Multiplicity           Mult            ....    1
 Number of Electrons    NEL             ....   36
 Basis Dimension        Dim             ....  191

ORBITAL ENERGIES
----------------

  NO   OCC          E(Eh)            E(eV)
   0   2.0000     -11.238370      -305.8116
   1   2.0000     -11.236635      -305.7644
   2   2.0000     -11.236524      -305.7614
   3   2.0000     -11.234197      -305.6980
   4   2.0000     -11.233182      -305.6704
   5   2.0000      -1.146303       -31.1925
   6   2.0000      -0.959603       -26.1121
   7   2.0000      -0.941989       -25.6328
   8   2.0000      -0.755085       -20.5469
   9   2.0000      -0.719019       -19.5655
  10   2.0000      -0.688617       -18.7382
  11   2.0000      -0.590834       -16.0774
  12   2.0000      -0.538360       -14.6495
  13   2.0000      -0.528954       -14.3936
  14   2.0000      -0.520165       -14.1544
  15   2.0000      -0.496536       -13.5114
  16   2.0000      -0.409172       -11.1341
  17   2.0000      -0.288880        -7.8608
  18   0.0000       0.086303         2.3484
  19   0.0000       0.155992         4.2448
  20   0.0000       0.179582         4.8867
  21   0.0000       0.186149         5.0654
  22   0.0000       0.204541         5.5658

MULLIKEN ATOMIC CHARGES
-----------------------
   0 H :    0.132629
   1 C :   -0.196596
   2 H :    0.131223
   3 C :   -0.145964
   4 H :    0.123883
   5 C :   -0.083275
   6 H :    0.113833
   7 C :   -0.142468
   8 C :   -0.196544
   9 H :    0.130600
  10 H :    0.132678
Sum of atomic charges:   -0.0000000

LOEWDIN ATOMIC CHARGES
----------------------
   0 H :    0.127551
   1 C :   -0.140838
   2 H :    0.133291
   3 C :   -0.156293
   4 H :    0.167952
   5 C :   -0.226347
   6 H :    0.130833
   7 C :   -0.156021
   8 C :   -0.140914
   9 H :    0.133237
  10 H :    0.127549

  Mayer bond orders larger than 0.100000
B(  0-H ,  1-C ) :   0.9713 B(  1-C ,  3-C ) :   1.8538 B(  1-C ,  5-C ) :   1.0031
B(  2-H ,  3-C ) :   0.9715 B(  3-C ,  7-C ) :   1.1184 B(  4-H ,  5-C ) :   0.9207
B(  5-C ,  6-H ) :   0.9787 B(  5-C ,  8-C ) :   1.0027 B(  7-C ,  8-C ) :   1.8545
B(  7-C ,  9-H ) :   0.9718 B(  8-C , 10-H ) :   0.9712

E(0)                                       ...   -192.827738588
E(0)                                       ...   -192.827738588
E(CORR)(strong-pairs)                      ...     -0.829907086
E(CORR)(weak-pairs)                        ...     -0.000576678
E(CORR)(corrected)                         ...     -0.830483763
E(TOT)                                     ...   -193.658222351
E(CCSD(T))                                 ...   -193.699293679
FINAL SINGLE POINT ENERGY      -193.699293679034

DIPOLE MOMENT
-------------
                                X             Y             Z
Electronic contribution:     -0.99305      -0.46339      -0.17446
Nuclear contribution   :      1.10629       0.66764       0.21928
                        -----------------------------------------
Total Dipole Moment    :      0.11324       0.20425       0.04482
                        -----------------------------------------
Magnitude (a.u.)       :      0.23780
Magnitude (Debye)      :      0.60445

Rotational constants in cm-1:     0.279016     0.270116     0.143128
Rotational constants in MHz :  8364.697462  8097.885091  4290.874732

                             ****ORCA TERMINATED NORMALLY****
TOTAL RUN TIME: 0 days 0 hours 4 minutes 58 seconds 530 msec
